ITEM: TIMESTEP
9
ITEM: NUMBER OF ATOMS
512
ITEM: BOX BOUNDS pp pp pp
0 25
0 25
0 25
ITEM: ATOMS id type xs ys zs
1 1 0.00900923 0.105747 0.816064
2 1 0.167568 0.421668 0.987055
3 1 0.743318 0.711118 0.289939
4 1 0.700509 0.756799 0.033232
5 1 0.606526 0.626116 0.489138
6 1 0.0200002 0.737045 0.0636978
7 1 0.992923 0.634027 0.0775259
8 1 0.389765 0.78623 0.447437
9 1 0.205563 0.255256 0.139185
10 1 0.493967 0.513707 0.543292
11 1 0.101917 0.00558575 0.100427
12 1 0.506564 0.639585 0.669399
13 1 0.151604 0.465005 0.698514
14 1 0.21856 0.500456 0.498021
15 1 0.0974772 0.311502 0.4871
16 1 0.527254 0.321017 0.412428
17 1 0.419914 0.497212 0.203934
18 1 0.393708 0.744727 0.26736
19 1 0.445016 0.281582 0.477893
20 1 0.0791786 0.00815695 0.992117
21 1 0.166066 0.642261 0.736036
22 1 0.300667 0.357437 0.499788
23 1 0.555478 0.0820594 0.467676
24 1 0.0204996 0.363738 0.051572
25 1 0.371438 0.331294 0.134864
26 1 0.712554 0.656219 0.548472
27 1 0.614391 0.165873 0.487062
28 1 0.215304 0.198857 0.38483
29 1 0.267947 0.407726 0.195445
30 1 0.638705 0.257606 0.440175
31 1 0.162138 0.0754334 0.0571692
32 1 0.0706708 0.189577 0.42374
33 1 0.304428 0.246779 0.297933
34 1 0.151645 0.97684 0.611472
35 1 0.991953 0.612454 0.430182
36 1 0.276311 0.215972 0.518866
37 1 0.801772 0.210122 0.0962848
38 1 0.475705 0.224333 0.150807
39 1 0.173148 0.583004 0.529925
40 1 0.34349 0.337153 0.26077
41 1 0.463522 0.803961 0.319282
42 1 0.429484 0.29095 0.207353
43 1 0.499303 0.0928492 0.213798
44 1 0.0450712 0.795461 0.62455
45 1 0.729746 0.693743 0.12672
46 1 0.00729285 0.453008 0.626758
47 1 0.337345 0.273553 0.636465
48 1 0.736806 0.550925 0.309388
49 1 0.217062 0.259923 0.719883
50 1 0.494213 0.620747 0.184155
51 1 0.641219 0.389489 0.627242
52 1 0.672663 0.0672241 0.393406
53 1 0.416419 0.594818 0.423716
54 1 0.0472345 0.196225 0.665961
55 1 0.324024 0.806875 0.56048
56 1 0.0390676 0.156853 0.534408
57 1 0.801764 0.268148 0.806949
58 1 0.363771 0.0815536 0.480611
59 1 0.147159 0.749031 0.162817
60 1 0.410989 0.648654 0.547673
61 1 0.525016 0.999586 0.386162
62 1 0.0560167 0.657057 0.987072
63 1 0.514524 0.447057 0.430007
64 1 0.728819 0.616283 0.457245
65 1 0.252138 0.588481 0.0262691
66 1 0.534324 0.147974 0.138406
67 1 0.210828 0.175039 0.240082
68 1 0.113981 0.586855 0.0322867
69 1 0.444771 0.0605152 0.540216
70 1 0.108531 0.264673 0.719566
71 1 0.747663 0.107142 0.703697
72 1 0.630859 0.164498 0.0428641
73 1 0.654339 0.11441 0.783339
74 1 0.34466 0.0435516 0.991781
75 1 0.170474 0.0467568 0.185604
76 1 0.237894 0.742858 0.243869
77 1 0.476959 0.357395 0.146422
78 1 0.421449 0.415366 0.69907
79 1 0.501774 0.787885 0.0268626
80 1 0.705257 0.100289 0.60628
81 1 0.609949 0.477759 0.415723
82 1 0.46282 0.216217 0.711743
83 1 0.983957 0.203671 0.362521
84 1 0.505477 0.530669 0.255656
85 1 0.183355 0.78041 0.401868
86 1 0.69893 0.289461 0.156265
87 1 0.736496 0.199802 0.630055
88 1 0.00224572 0.98816 0.412018
89 1 0.26024 0.246232 0.0590183
90 1 0.365382 0.52351 0.119862
91 1 0.336299 0.257806 0.198526
92 1 0.300638 0.72079 0.0297781
93 1 0.241525 0.0193547 0.294023
94 1 0.740259 0.00157125 0.614922
95 1 0.439187 0.45008 0.291985
96 1 0.0416265 0.230142 0.23105
97 1 0.630936 0.43034 0.0556364
98 1 0.339631 0.618237 0.481937
99 1 0.302687 0.56144 0.553936
100 1 0.440883 0.668775 0.807412
101 1 0.418175 0.293882 0.801573
102 1 0.792904 0.341663 0.146719
103 1 0.98006 0.379811 0.535242
104 1 0.498955 0.227955 0.819026
105 1 0.37158 0.365509 0.437078
106 1 0.0984733 0.345476 0.982701
107 1 0.540372 0.806096 0.434887
108 1 0.550701 0.442532 0.981284
109 1 0.625611 0.434776 0.743761
110 1 0.0431368 0.450673 0.499711
111 1 0.608202 0.217395 0.818864
112 1 0.649964 0.269495 0.239518
113 1 0.628425 0.0170575 0.689751
114 1 0.461891 0.380559 0.469092
115 1 0.428918 0.117199 0.691065
116 1 0.331637 0.542643 0.2413
117 1 0.619131 0.668438 0.391028
118 1 0.720366 0.324095 0.593664
119 1 0.696278 0.511005 0.143571
120 1 0.404196 0.147806 0.425731
121 1 0.744662 0.361433 0.488122
122 1 0.15932 0.254822 0.295217
123 1 0.324889 0.271764 0.436526
124 1 0.399667 0.664351 0.645481
125 1 0.585214 0.421794 0.283911
126 1 0.279434 0.191179 0.156081
127 1 0.527197 0.0469557 0.605029
128 1 0.372722 0.33055 0.713368
129 1 0.0890389 0.564912 0.126504
130 1 0.789574 0.0593044 0.369386
131 1 0.232448 0.591304 0.34267
132 1 0.614627 0.109009 0.574325
133 1 0.521668 0.27873 0.625811
134 1 0.379117 0.991992 0.332083
135 1 0.734195 0.472127 0.231324
136 1 0.493478 0.363791 0.661352
137 1 0.725152 0.411563 0.0894885
138 1 0.800085 0.0574316 0.15354
139 1 0.163282 0.076901 0.326953
140 1 0.115959 0.755887 0.0196854
141 1 0.734799 0.781868 0.210965
142 1 0.387384 0.0331502 0.798884
143 1 0.591783 0.536817 0.17177
144 1 0.646881 0.490439 0.972789
145 1 0.267542 0.48892 0.112576
146 1 0.134016 0.564905 0.316005
147 1 0.604232 0.53381 0.720561
148 1 0.0673926 0.705485 0.782158
149 1 0.767591 0.787434 0.803151
150 1 0.714775 0.270202 0.505538
151 1 0.448285 0.288206 0.0824145
152 1 0.138446 0.126607 0.604324
153 1 0.0288079 0.547678 0.286656
154 1 0.992463 0.481972 0.0405407
155 1 0.190715 0.717626 0.48651
156 1 0.0801939 0.00562202 0.537766
157 1 0.78243 0.251113 0.194887
158 1 0.678663 0.580538 0.212365
159 1 0.337774 0.678538 0.779378
160 1 0.817929 0.534743 0.216458
161 1 0.642563 0.168106 0.155862
162 1 0.157579 0.76059 0.777323
163 1 0.173635 0.650241 0.410398
164 1 0.504944 0.0111555 0.280488
165 1 0.301723 0.156828 0.433201
166 1 0.588638 0.185973 0.393635
167 1 0.121379 0.505359 0.482635
168 1 0.16872 0.372468 0.743083
169 1 0.818851 0.348878 0.567747
170 1 0.697592 0.78721 0.350697
171 1 0.524884 0.134377 0.552628
172 1 0.807305 0.102148 0.606959
173 1 0.709693 0.371859 0.215662
174 1 0.575509 0.202027 0.607978
175 1 0.324428 0.239934 0.980211
176 1 0.408356 0.350365 0.605851
177 1 0.457642 0.726511 0.704014
178 1 0.595087 0.349261 0.220177
179 1 0.976412 0.55866 0.713423
180 1 0.535514 0.54793 0.0173585
181 1 0.0958082 0.794479 0.35319
182 1 5.37439e-05 0.461686 0.355108
183 1 0.652046 0.569218 0.421957
184 1 0.0792808 0.596206 0.485466
185 1 0.464661 0.201875 0.248181
186 1 0.137253 0.805018 0.510076
187 1 0.30569 0.454894 0.705896
188 1 0.714099 0.747421 0.597024
189 1 0.177038 0.524126 0.109444
190 1 0.0831429 0.380247 0.572496
191 1 0.414356 0.396802 0.0660476
192 1 0.253902 0.285969 0.368667
193 1 0.446665 0.327903 0.296258
194 1 0.263035 0.209152 0.799006
195 1 0.578704 0.350732 0.708384
196 1 0.562565 0.427228 0.508683
197 1 0.750478 0.173781 0.513576
198 1 0.345866 0.406561 0.792242
199 1 0.386954 0.480706 0.385121
200 1 0.0725914 0.0647068 0.434165
201 1 0.327552 0.710332 0.519994
202 1 0.709823 0.495444 0.394171
203 1 0.150042 0.535291 0.778515
204 1 0.492939 0.6062 0.484451
205 1 0.338077 0.656926 0.292801
206 1 0.179059 0.431676 0.151208
207 1 0.706971 0.768659 0.451534
208 1 0.216067 0.0455521 0.578137
209 1 0.659325 0.159992 0.686782
210 1 0.390806 0.498518 0.740217
211 1 0.37995 0.387127 0.341205
212 1 0.651099 0.0149401 0.554644
213 1 0.220029 0.800248 0.578392
214 1 0.597034 0.0621448 0.149377
215 1 0.186267 0.301089 0.550516
216 1 0.688699 0.319623 0.0490787
217 1 0.085352 0.33567 0.147588
218 1 0.46866 0.479878 0.0494586
219 1 0.344362 0.0329168 0.632962
220 1 0.403143 0.141949 0.185949
221 1 0.505337 0.711767 0.541657
222 1 0.517018 0.0548639 0.708428
223 1 0.48153 0.72643 0.179943
224 1 0.523369 0.613029 0.575837
225 1 0.757168 0.792432 0.69196
226 1 0.236075 0.711956 0.343042
227 1 0.546831 0.229242 0.0466479
228 1 0.591419 0.0756277 0.25398
229 1 0.781871 0.0109302 0.714009
230 1 0.338906 0.424134 0.123926
231 1 0.791715 0.688032 0.763368
232 1 0.811206 0.629754 0.398638
233 1 0.127798 0.169628 0.340467
234 1 0.175938 0.345457 0.200183
235 1 0.406286 0.400006 0.198111
236 1 0.0917555 0.366902 0.320565
237 1 0.677869 0.68036 0.21193
238 1 0.251615 0.133586 0.66382
239 1 0.82005 0.256844 0.637828
240 1 0.802607 0.732608 0.371813
241 1 0.631013 0.249214 0.0984651
242 1 0.527513 0.126306 0.042666
243 1 0.0333086 0.69404 0.235897
244 1 0.639234 0.445245 0.193794
245 1 0.194913 0.156811 0.111582
246 1 0.188288 0.650875 0.273014
247 1 0.626079 0.629419 0.643915
248 1 0.755961 0.152332 0.999378
249 1 0.279005 0.155004 0.32939
250 1 0.720144 0.190647 0.353225
251 1 0.555315 0.314179 0.107654
252 1 0.503999 0.377968 0.235721
253 1 0.590898 0.0687012 0.987916
254 1 0.792011 0.992064 0.0704794
255 1 0.223583 0.469417 0.258395
256 1 0.794679 0.400086 0.754754
257 1 0.25407 0.991208 0.0198491
258 1 0.448422 0.197701 0.0350373
259 1 0.136423 0.154088 0.996273
260 1 0.210322 0.640283 0.173901
261 1 0.203935 0.369276 0.293446
262 1 0.175409 0.117304 0.766004
263 1 0.357796 0.245791 0.0890798
264 1 0.304833 0.0788309 0.556989
265 1 0.446721 0.169864 0.606758
266 1 0.332733 0.409024 0.619824
267 1 0.20716 0.449031 0.350913
268 1 0.422353 0.0124338 0.695555
269 1 0.530457 0.804146 0.6863
270 1 0.98754 0.432188 0.2296
271 1 0.311467 0.0367568 0.726955
272 1 0.635516 0.767211 0.242003
273 1 0.244844 0.015338 0.120878
274 1 0.531654 0.996371 0.789611
275 1 0.537044 0.771817 0.25638
276 1 0.108291 0.0914998 0.691347
277 1 0.542057 0.534326 0.641374
278 1 0.80058 0.770784 0.496492
279 1 0.28768 0.375772 0.369191
280 1 0.624901 0.795156 0.135939
281 1 0.277121 0.759659 0.441789
282 1 0.814272 0.44 0.476692
283 1 0.00934547 0.109059 0.710003
284 1 0.143454 0.253943 0.997394
285 1 0.44529 0.64633 0.266346
286 1 0.668327 0.427843 0.479803
287 1 0.523317 0.727066 0.785807
288 1 0.462312 0.178453 0.497944
289 1 0.769779 0.627284 0.633422
290 1 0.0411286 0.590204 0.802806
291 1 0.229045 0.975739 0.741372
292 1 0.574311 0.171456 0.230502
293 1 0.751744 0.407401 0.397765
294 1 0.80777 0.627312 0.150458
295 1 0.336162 0.756905 0.35566
296 1 0.239181 0.281516 0.23713
297 1 0.66103 0.642529 0.796447
298 1 0.743081 0.398188 0.664874
299 1 0.16249 0.162806 0.453941
300 1 0.572981 0.533639 0.488736
301 1 0.637585 0.365696 0.131326
302 1 0.70332 0.0895207 0.164071
303 1 0.178866 0.323728 0.0615812
304 1 0.461262 0.0542225 0.00994803
305 1 0.552883 0.646636 0.993555
306 1 0.798263 0.251023 0.297766
307 1 0.5654 0.257577 0.184261
308 1 0.158081 0.486685 0.592842
309 1 0.151534 0.214565 0.798238
310 1 0.484194 0.604462 0.346372
311 1 0.417423 0.548556 0.294058
312 1 0.555019 0.60568 0.105505
313 1 0.423002 0.115746 0.0893342
314 1 0.655953 0.489213 0.304678
315 1 0.0119253 0.147814 0.174571
316 1 0.651244 0.271513 0.647207
317 1 0.805666 0.444273 0.144508
318 1 0.391292 0.415616 0.529639
319 1 0.293058 0.501379 0.334283
320 1 0.792933 0.196969 0.724343
321 1 0.359767 0.145191 0.982006
322 1 0.669057 0.632302 0.310908
323 1 0.33704 0.440101 0.260359
324 1 0.325149 0.355512 0.034997
325 1 0.0625681 0.632549 0.700222
326 1 0.495306 0.536955 0.415457
327 1 0.735142 0.551814 0.558431
328 1 0.789645 0.209847 0.424698
329 1 0.696919 0.289464 0.325227
330 1 0.154698 0.409243 0.508483
331 1 0.406218 0.519824 0.486541
332 1 0.484216 0.0934385 0.81329
333 1 0.066973 0.0333377 0.338195
334 1 0.323534 0.162966 0.242093
335 1 0.787745 0.46085 0.319975
336 1 0.627362 0.472011 0.563325
337 1 0.420124 0.079477 0.269255
338 1 0.268767 0.458977 0.997365
339 1 0.496452 0.339731 0.550431
340 1 0.773052 0.306816 0.402745
341 1 0.268652 0.0857113 0.807206
342 1 0.0343331 0.685087 0.513374
343 1 0.483714 0.732119 0.38468
344 1 0.1022 0.467559 0.306817
345 1 0.57857 0.663053 0.223994
346 1 0.345636 0.508052 0.63074
347 1 0.435045 0.694732 0.465866
348 1 0.23038 0.661723 0.558706
349 1 0.348595 0.00811922 0.213697
350 1 0.730025 0.431012 0.562934
351 1 0.182184 0.523628 0.985536
352 1 0.0819275 0.0397182 0.775855
353 1 0.227617 0.0923871 0.48646
354 1 0.00519777 0.372923 0.797751
355 1 0.71678 0.00662529 0.991187
356 1 0.512416 0.3882 0.0583085
357 1 0.20444 0.26338 0.460016
358 1 0.597597 0.562591 0.266357
359 1 0.263004 0.814249 0.140175
360 1 0.104071 0.778082 0.250891
361 1 0.715731 0.522763 0.0429957
362 1 0.00549829 0.278706 0.744127
363 1 0.498316 0.150407 0.403214
364 1 0.629123 0.808805 0.540736
365 1 0.816486 0.565156 0.49415
366 1 0.564782 0.129556 0.66865
367 1 0.570303 0.711425 0.615915
368 1 0.743539 0.295195 0.715666
369 1 0.51522 0.576516 0.751495
370 1 0.634399 0.772569 0.667465
371 1 0.0757079 0.524681 0.392052
372 1 0.217923 0.365119 0.446332
373 1 0.348237 0.579442 0.356419
374 1 0.160878 0.320157 0.376917
375 1 0.658787 0.623439 0.0937913
376 1 0.0671036 0.990936 0.671684
377 1 0.656302 0.537661 0.80938
378 1 0.121066 0.715348 0.62093
379 1 0.643334 0.283739 0.749047
380 1 0.217274 0.710014 0.0972812
381 1 0.226859 0.423558 0.654678
382 1 0.328417 0.0759717 0.30565
383 1 0.58845 0.389917 0.376537
384 1 0.371801 0.21138 0.50005
385 1 0.221005 0.210131 0.602143
386 1 0.491784 0.0496171 0.124117
387 1 0.764702 0.264096 0.00638084
388 1 0.767962 0.62315 0.24604
389 1 0.41023 0.572739 0.800915
390 1 0.0528644 0.368806 0.677353
391 1 0.506365 0.811024 0.581577
392 1 0.269456 0.45341 0.425626
393 1 0.423895 0.259664 0.573267
394 1 0.678317 0.389839 0.312074
395 1 0.594607 0.342222 0.0165934
396 1 0.0337248 0.0373744 0.194968
397 1 0.331316 0.152186 0.082242
398 1 0.0282069 0.43344 0.130258
399 1 0.500843 0.307122 0.996711
400 1 0.116728 0.400835 0.0781709
401 1 0.381361 0.162313 0.334535
402 1 0.766361 0.660347 0.0320033
403 1 0.287388 0.594654 0.122946
404 1 0.53938 0.456852 0.202762
405 1 0.320624 0.477471 0.502041
406 1 0.450361 0.489645 0.640768
407 1 0.671636 0.346127 0.407484
408 1 0.427708 0.97973 0.085886
409 1 0.0896209 0.667344 0.131753
410 1 0.323899 0.731952 0.151766
411 1 0.586429 0.668133 0.729876
412 1 0.519508 0.431315 0.595259
413 1 0.373405 0.655873 0.19538
414 1 0.572618 0.70619 0.102971
415 1 0.778281 0.353071 0.310939
416 1 0.400471 0.677588 0.371927
417 1 0.986777 0.0607702 0.515472
418 1 0.287943 0.091123 0.17703
419 1 0.265044 0.512153 0.778279
420 1 0.772008 0.0720375 0.50033
421 1 0.130827 0.215252 0.53402
422 1 0.535608 0.236213 0.464793
423 1 0.712051 0.205687 0.794745
424 1 0.668848 0.499817 0.64725
425 1 0.103619 0.678573 0.334021
426 1 0.239891 0.54301 0.197562
427 1 0.0606672 0.267987 0.328963
428 1 0.0296522 0.0708195 0.610493
429 1 0.635725 0.570997 0.564915
430 1 0.243125 0.308463 0.975765
431 1 0.0030386 0.764931 0.315023
432 1 0.675106 0.0739363 0.0601637
433 1 0.23877 0.585497 0.629591
434 1 0.0272005 0.370815 0.405781
435 1 0.0679309 0.515159 0.700833
436 1 0.531301 0.481387 0.338671
437 1 0.181323 0.528798 0.405147
438 1 0.00374 0.258551 0.0491787
439 1 0.0935619 0.204483 0.112986
440 1 0.00938194 0.329574 0.219804
441 1 0.337472 0.172334 0.622616
442 1 0.638615 0.716001 0.502554
443 1 0.254675 0.441014 0.56475
444 1 0.541609 0.689992 0.451391
445 1 0.630071 0.206936 0.310757
446 1 0.514204 0.138929 0.304876
447 1 0.791194 0.536751 0.108916
448 1 0.110089 0.296259 0.623769
449 1 0.129454 0.425448 0.407572
450 1 0.715151 0.990386 0.326719
451 1 0.167907 0.999682 0.473196
452 1 0.669491 0.746562 0.779609
453 1 0.618951 0.530324 0.0736857
454 1 0.0923537 0.731183 0.439816
455 1 0.576897 0.0883186 0.364455
456 1 0.122359 0.0962212 0.512959
457 1 0.589152 0.273664 0.542795
458 1 0.199657 0.0488655 0.678411
459 1 0.983281 0.135059 0.443255
460 1 0.664058 0.205542 0.563058
461 1 0.544717 0.67925 0.318634
462 1 0.700424 0.58149 0.698289
463 1 0.424053 0.30148 0.385228
464 1 0.0659176 0.50072 0.200522
465 1 0.383825 0.628164 0.0919073
466 1 0.52268 0.328948 0.794063
467 1 0.275719 0.558984 0.433515
468 1 0.400988 0.304328 0.993163
469 1 0.757748 0.586312 0.783715
470 1 0.0372816 0.250796 0.574713
471 1 0.795104 0.0693764 0.260819
472 1 0.399273 0.791959 0.647123
473 1 0.105312 0.411192 0.22357
474 1 0.486424 0.391455 0.356293
475 1 0.679693 0.105338 0.293033
476 1 0.447174 0.0691167 0.367751
477 1 0.124503 0.992596 0.262518
478 1 0.273321 0.354351 0.719676
479 1 0.259028 0.10109 0.0397185
480 1 0.00835489 0.477315 0.783428
481 1 0.0959817 0.490394 0.0459454
482 1 0.273621 0.33436 0.588718
483 1 0.577603 0.56836 0.360782
484 1 0.299199 0.659984 0.400713
485 1 0.612355 0.990298 0.30382
486 1 0.485734 0.531667 0.139446
487 1 0.000131043 0.585714 0.172764
488 1 0.10163 0.59295 0.605503
489 1 0.779384 0.493157 0.631997
490 1 0.134717 0.579867 0.216444
491 1 0.498073 0.240068 0.36165
492 1 0.129268 0.255307 0.198117
493 1 0.260108 0.77848 0.799403
494 1 0.00687807 0.274196 0.445957
495 1 0.416593 0.758419 0.550706
496 1 0.59887 0.344309 0.477945
497 1 0.552733 0.461886 0.108222
498 1 0.671058 0.625596 0.986202
499 1 0.546742 0.157471 0.761669
500 1 0.395771 0.542838 0.0192949
501 1 0.547258 0.263735 0.281525
502 1 0.172032 0.666258 0.0138475
503 1 0.244431 0.396945 0.0773319
504 1 0.675863 0.98664 0.175205
505 1 0.345129 0.0450222 0.100255
506 1 0.820337 0.401702 0.23514
507 1 0.399145 0.250425 0.302526
508 1 0.19736 0.329496 0.650309
509 1 0.412923 0.559423 0.581515
510 1 0.733062 0.177026 0.244461
511 1 0.163225 0.992706 0.819793
512 1 0.273678 0.324365 0.143712
ITEM: TIMESTEP
10
ITEM: NUMBER OF ATOMS
512
ITEM: BOX BOUNDS pp pp pp
0 25
0 25
0 25
ITEM: ATOMS id type xs ys zs
1 1 0.00900923 0.105747 0.816064
2 1 0.167568 0.421668 0.987055
3 1 0.743318 0.711118 0.289939
4 1 0.700509 0.756799 0.033232
5 1 0.606526 0.626116 0.489138
6 1 0.0200002 0.737045 0.0636978
7 1 0.992923 0.634027 0.0775259
8 1 0.389765 0.78623 0.447437
9 1 0.205563 0.255256 0.139185
10 1 0.493967 0.513707 0.543292
11 1 0.101917 0.00558575 0.100427
12 1 0.506564 0.639585 0.669399
13 1 0.151604 0.465005 0.698514
14 1 0.21856 0.500456 0.498021
15 1 0.0974772 0.311502 0.4871
16 1 0.527254 0.321017 0.412428
17 1 0.419914 0.497212 0.203934
18 1 0.393708 0.744727 0.26736
19 1 0.445016 0.281582 0.477893
20 1 0.0791786 0.00815695 0.992117
21 1 0.166066 0.642261 0.736036
22 1 0.300667 0.357437 0.499788
23 1 0.555478 0.0820594 0.467676
24 1 0.0204996 0.363738 0.051572
25 1 0.371438 0.331294 0.134864
26 1 0.712554 0.656219 0.548472
27 1 0.614391 0.165873 0.487062
28 1 0.215304 0.198857 0.38483
29 1 0.267947 0.407726 0.195445
30 1 0.638705 0.257606 0.440175
31 1 0.162138 0.0754334 0.0571692
32 1 0.0706708 0.189577 0.42374
33 1 0.304428 0.246779 0.297933
34 1 0.151645 0.97684 0.611472
35 1 0.991953 0.612454 0.430182
36 1 0.276311 0.215972 0.518866
37 1 0.801772 0.210122 0.0962848
38 1 0.475705 0.224333 0.150807
39 1 0.173148 0.583004 0.529925
40 1 0.34349 0.337153 0.26077
41 1 0.463522 0.803961 0.319282
42 1 0.429484 0.29095 0.207353
43 1 0.499303 0.0928492 0.213798
44 1 0.0450712 0.795461 0.62455
45 1 0.729746 0.693743 0.12672
46 1 0.00729285 0.453008 0.626758
47 1 0.337345 0.273553 0.636465
48 1 0.736806 0.550925 0.309388
49 1 0.217062 0.259923 0.719883
50 1 0.494213 0.620747 0.184155
51 1 0.641219 0.389489 0.627242
52 1 0.672663 0.0672241 0.393406
53 1 0.416419 0.594818 0.423716
54 1 0.0472345 0.196225 0.665961
55 1 0.324024 0.806875 0.56048
56 1 0.0390676 0.156853 0.534408
57 1 0.801764 0.268148 0.806949
58 1 0.363771 0.0815536 0.480611
59 1 0.147159 0.749031 0.162817
60 1 0.410989 0.648654 0.547673
61 1 0.525016 0.999586 0.386162
62 1 0.0560167 0.657057 0.987072
63 1 0.514524 0.447057 0.430007
64 1 0.728819 0.616283 0.457245
65 1 0.252138 0.588481 0.0262691
66 1 0.534324 0.147974 0.138406
67 1 0.210828 0.175039 0.240082
68 1 0.113981 0.586855 0.0322867
69 1 0.444771 0.0605152 0.540216
70 1 0.108531 0.264673 0.719566
71 1 0.747663 0.107142 0.703697
72 1 0.630859 0.164498 0.0428641
73 1 0.654339 0.11441 0.783339
74 1 0.34466 0.0435516 0.991781
75 1 0.170474 0.0467568 0.185604
76 1 0.237894 0.742858 0.243869
77 1 0.476959 0.357395 0.146422
78 1 0.421449 0.415366 0.69907
79 1 0.501774 0.787885 0.0268626
80 1 0.705257 0.100289 0.60628
81 1 0.609949 0.477759 0.415723
82 1 0.46282 0.216217 0.711743
83 1 0.983957 0.203671 0.362521
84 1 0.505477 0.530669 0.255656
85 1 0.183355 0.78041 0.401868
86 1 0.69893 0.289461 0.156265
87 1 0.736496 0.199802 0.630055
88 1 0.00224572 0.98816 0.412018
89 1 0.26024 0.246232 0.0590183
90 1 0.365382 0.52351 0.119862
91 1 0.336299 0.257806 0.198526
92 1 0.300638 0.72079 0.0297781
93 1 0.241525 0.0193547 0.294023
94 1 0.740259 0.00157125 0.614922
95 1 0.439187 0.45008 0.291985
96 1 0.0416265 0.230142 0.23105
97 1 0.630936 0.43034 0.0556364
98 1 0.339631 0.618237 0.481937
99 1 0.302687 0.56144 0.553936
100 1 0.440883 0.668775 0.807412
101 1 0.418175 0.293882 0.801573
102 1 0.792904 0.341663 0.146719
103 1 0.98006 0.379811 0.535242
104 1 0.498955 0.227955 0.819026
105 1 0.37158 0.365509 0.437078
106 1 0.0984733 0.345476 0.982701
107 1 0.540372 0.806096 0.434887
108 1 0.550701 0.442532 0.981284
109 1 0.625611 0.434776 0.743761
110 1 0.0431368 0.450673 0.499711
111 1 0.608202 0.217395 0.818864
112 1 0.649964 0.269495 0.239518
113 1 0.628425 0.0170575 0.689751
114 1 0.461891 0.380559 0.469092
115 1 0.428918 0.117199 0.691065
116 1 0.331637 0.542643 0.2413
117 1 0.619131 0.668438 0.391028
118 1 0.720366 0.324095 0.593664
119 1 0.696278 0.511005 0.143571
120 1 0.404196 0.147806 0.425731
121 1 0.744662 0.361433 0.488122
122 1 0.15932 0.254822 0.295217
123 1 0.324889 0.271764 0.436526
124 1 0.399667 0.664351 0.645481
125 1 0.585214 0.421794 0.283911
126 1 0.279434 0.191179 0.156081
127 1 0.527197 0.0469557 0.605029
128 1 0.372722 0.33055 0.713368
129 1 0.0890389 0.564912 0.126504
130 1 0.789574 0.0593044 0.369386
131 1 0.232448 0.591304 0.34267
132 1 0.614627 0.109009 0.574325
133 1 0.521668 0.27873 0.625811
134 1 0.379117 0.991992 0.332083
135 1 0.734195 0.472127 0.231324
136 1 0.493478 0.363791 0.661352
137 1 0.725152 0.411563 0.0894885
138 1 0.800085 0.0574316 0.15354
139 1 0.163282 0.076901 0.326953
140 1 0.115959 0.755887 0.0196854
141 1 0.734799 0.781868 0.210965
142 1 0.387384 0.0331502 0.798884
143 1 0.591783 0.536817 0.17177
144 1 0.646881 0.490439 0.972789
145 1 0.267542 0.48892 0.112576
146 1 0.134016 0.564905 0.316005
147 1 0.604232 0.53381 0.720561
148 1 0.0673926 0.705485 0.782158
149 1 0.767591 0.787434 0.803151
150 1 0.714775 0.270202 0.505538
151 1 0.448285 0.288206 0.0824145
152 1 0.138446 0.126607 0.604324
153 1 0.0288079 0.547678 0.286656
154 1 0.992463 0.481972 0.0405407
155 1 0.190715 0.717626 0.48651
156 1 0.0801939 0.00562202 0.537766
157 1 0.78243 0.251113 0.194887
158 1 0.678663 0.580538 0.212365
159 1 0.337774 0.678538 0.779378
160 1 0.817929 0.534743 0.216458
161 1 0.642563 0.168106 0.155862
162 1 0.157579 0.76059 0.777323
163 1 0.173635 0.650241 0.410398
164 1 0.504944 0.0111555 0.280488
165 1 0.301723 0.156828 0.433201
166 1 0.588638 0.185973 0.393635
167 1 0.121379 0.505359 0.482635
168 1 0.16872 0.372468 0.743083
169 1 0.818851 0.348878 0.567747
170 1 0.697592 0.78721 0.350697
171 1 0.524884 0.134377 0.552628
172 1 0.807305 0.102148 0.606959
173 1 0.709693 0.371859 0.215662
174 1 0.575509 0.202027 0.607978
175 1 0.324428 0.239934 0.980211
176 1 0.408356 0.350365 0.605851
177 1 0.457642 0.726511 0.704014
178 1 0.595087 0.349261 0.220177
179 1 0.976412 0.55866 0.713423
180 1 0.535514 0.54793 0.0173585
181 1 0.0958082 0.794479 0.35319
182 1 5.37439e-05 0.461686 0.355108
183 1 0.652046 0.569218 0.421957
184 1 0.0792808 0.596206 0.485466
185 1 0.464661 0.201875 0.248181
186 1 0.137253 0.805018 0.510076
187 1 0.30569 0.454894 0.705896
188 1 0.714099 0.747421 0.597024
189 1 0.177038 0.524126 0.109444
190 1 0.0831429 0.380247 0.572496
191 1 0.414356 0.396802 0.0660476
192 1 0.253902 0.285969 0.368667
193 1 0.446665 0.327903 0.296258
194 1 0.263035 0.209152 0.799006
195 1 0.578704 0.350732 0.708384
196 1 0.562565 0.427228 0.508683
197 1 0.750478 0.173781 0.513576
198 1 0.345866 0.406561 0.792242
199 1 0.386954 0.480706 0.385121
200 1 0.0725914 0.0647068 0.434165
201 1 0.327552 0.710332 0.519994
202 1 0.709823 0.495444 0.394171
203 1 0.150042 0.535291 0.778515
204 1 0.492939 0.6062 0.484451
205 1 0.338077 0.656926 0.292801
206 1 0.179059 0.431676 0.151208
207 1 0.706971 0.768659 0.451534
208 1 0.216067 0.0455521 0.578137
209 1 0.659325 0.159992 0.686782
210 1 0.390806 0.498518 0.740217
211 1 0.37995 0.387127 0.341205
212 1 0.651099 0.0149401 0.554644
213 1 0.220029 0.800248 0.578392
214 1 0.597034 0.0621448 0.149377
215 1 0.186267 0.301089 0.550516
216 1 0.688699 0.319623 0.0490787
217 1 0.085352 0.33567 0.147588
218 1 0.46866 0.479878 0.0494586
219 1 0.344362 0.0329168 0.632962
220 1 0.403143 0.141949 0.185949
221 1 0.505337 0.711767 0.541657
222 1 0.517018 0.0548639 0.708428
223 1 0.48153 0.72643 0.179943
224 1 0.523369 0.613029 0.575837
225 1 0.757168 0.792432 0.69196
226 1 0.236075 0.711956 0.343042
227 1 0.546831 0.229242 0.0466479
228 1 0.591419 0.0756277 0.25398
229 1 0.781871 0.0109302 0.714009
230 1 0.338906 0.424134 0.123926
231 1 0.791715 0.688032 0.763368
232 1 0.811206 0.629754 0.398638
233 1 0.127798 0.169628 0.340467
234 1 0.175938 0.345457 0.200183
235 1 0.406286 0.400006 0.198111
236 1 0.0917555 0.366902 0.320565
237 1 0.677869 0.68036 0.21193
238 1 0.251615 0.133586 0.66382
239 1 0.82005 0.256844 0.637828
240 1 0.802607 0.732608 0.371813
241 1 0.631013 0.249214 0.0984651
242 1 0.527513 0.126306 0.042666
243 1 0.0333086 0.69404 0.235897
244 1 0.639234 0.445245 0.193794
245 1 0.194913 0.156811 0.111582
246 1 0.188288 0.650875 0.273014
247 1 0.626079 0.629419 0.643915
248 1 0.755961 0.152332 0.999378
249 1 0.279005 0.155004 0.32939
250 1 0.720144 0.190647 0.353225
251 1 0.555315 0.314179 0.107654
252 1 0.503999 0.377968 0.235721
253 1 0.590898 0.0687012 0.987916
254 1 0.792011 0.992064 0.0704794
255 1 0.223583 0.469417 0.258395
256 1 0.794679 0.400086 0.754754
257 1 0.25407 0.991208 0.0198491
258 1 0.448422 0.197701 0.0350373
259 1 0.136423 0.154088 0.996273
260 1 0.210322 0.640283 0.173901
261 1 0.203935 0.369276 0.293446
262 1 0.175409 0.117304 0.766004
263 1 0.357796 0.245791 0.0890798
264 1 0.304833 0.0788309 0.556989
265 1 0.446721 0.169864 0.606758
266 1 0.332733 0.409024 0.619824
267 1 0.20716 0.449031 0.350913
268 1 0.422353 0.0124338 0.695555
269 1 0.530457 0.804146 0.6863
270 1 0.98754 0.432188 0.2296
271 1 0.311467 0.0367568 0.726955
272 1 0.635516 0.767211 0.242003
273 1 0.244844 0.015338 0.120878
274 1 0.531654 0.996371 0.789611
275 1 0.537044 0.771817 0.25638
276 1 0.108291 0.0914998 0.691347
277 1 0.542057 0.534326 0.641374
278 1 0.80058 0.770784 0.496492
279 1 0.28768 0.375772 0.369191
280 1 0.624901 0.795156 0.135939
281 1 0.277121 0.759659 0.441789
282 1 0.814272 0.44 0.476692
283 1 0.00934547 0.109059 0.710003
284 1 0.143454 0.253943 0.997394
285 1 0.44529 0.64633 0.266346
286 1 0.668327 0.427843 0.479803
287 1 0.523317 0.727066 0.785807
288 1 0.462312 0.178453 0.497944
289 1 0.769779 0.627284 0.633422
290 1 0.0411286 0.590204 0.802806
291 1 0.229045 0.975739 0.741372
292 1 0.574311 0.171456 0.230502
293 1 0.751744 0.407401 0.397765
294 1 0.80777 0.627312 0.150458
295 1 0.336162 0.756905 0.35566
296 1 0.239181 0.281516 0.23713
297 1 0.66103 0.642529 0.796447
298 1 0.743081 0.398188 0.664874
299 1 0.16249 0.162806 0.453941
300 1 0.572981 0.533639 0.488736
301 1 0.637585 0.365696 0.131326
302 1 0.70332 0.0895207 0.164071
303 1 0.178866 0.323728 0.0615812
304 1 0.461262 0.0542225 0.00994803
305 1 0.552883 0.646636 0.993555
306 1 0.798263 0.251023 0.297766
307 1 0.5654 0.257577 0.184261
308 1 0.158081 0.486685 0.592842
309 1 0.151534 0.214565 0.798238
310 1 0.484194 0.604462 0.346372
311 1 0.417423 0.548556 0.294058
312 1 0.555019 0.60568 0.105505
313 1 0.423002 0.115746 0.0893342
314 1 0.655953 0.489213 0.304678
315 1 0.0119253 0.147814 0.174571
316 1 0.651244 0.271513 0.647207
317 1 0.805666 0.444273 0.144508
318 1 0.391292 0.415616 0.529639
319 1 0.293058 0.501379 0.334283
320 1 0.792933 0.196969 0.724343
321 1 0.359767 0.145191 0.982006
322 1 0.669057 0.632302 0.310908
323 1 0.33704 0.440101 0.260359
324 1 0.325149 0.355512 0.034997
325 1 0.0625681 0.632549 0.700222
326 1 0.495306 0.536955 0.415457
327 1 0.735142 0.551814 0.558431
328 1 0.789645 0.209847 0.424698
329 1 0.696919 0.289464 0.325227
330 1 0.154698 0.409243 0.508483
331 1 0.406218 0.519824 0.486541
332 1 0.484216 0.0934385 0.81329
333 1 0.066973 0.0333377 0.338195
334 1 0.323534 0.162966 0.242093
335 1 0.787745 0.46085 0.319975
336 1 0.627362 0.472011 0.563325
337 1 0.420124 0.079477 0.269255
338 1 0.268767 0.458977 0.997365
339 1 0.496452 0.339731 0.550431
340 1 0.773052 0.306816 0.402745
341 1 0.268652 0.0857113 0.807206
342 1 0.0343331 0.685087 0.513374
343 1 0.483714 0.732119 0.38468
344 1 0.1022 0.467559 0.306817
345 1 0.57857 0.663053 0.223994
346 1 0.345636 0.508052 0.63074
347 1 0.435045 0.694732 0.465866
348 1 0.23038 0.661723 0.558706
349 1 0.348595 0.00811922 0.213697
350 1 0.730025 0.431012 0.562934
351 1 0.182184 0.523628 0.985536
352 1 0.0819275 0.0397182 0.775855
353 1 0.227617 0.0923871 0.48646
354 1 0.00519777 0.372923 0.797751
355 1 0.71678 0.00662529 0.991187
356 1 0.512416 0.3882 0.0583085
357 1 0.20444 0.26338 0.460016
358 1 0.597597 0.562591 0.266357
359 1 0.263004 0.814249 0.140175
360 1 0.104071 0.778082 0.250891
361 1 0.715731 0.522763 0.0429957
362 1 0.00549829 0.278706 0.744127
363 1 0.498316 0.150407 0.403214
364 1 0.629123 0.808805 0.540736
365 1 0.816486 0.565156 0.49415
366 1 0.564782 0.129556 0.66865
367 1 0.570303 0.711425 0.615915
368 1 0.743539 0.295195 0.715666
369 1 0.51522 0.576516 0.751495
370 1 0.634399 0.772569 0.667465
371 1 0.0757079 0.524681 0.392052
372 1 0.217923 0.365119 0.446332
373 1 0.348237 0.579442 0.356419
374 1 0.160878 0.320157 0.376917
375 1 0.658787 0.623439 0.0937913
376 1 0.0671036 0.990936 0.671684
377 1 0.656302 0.537661 0.80938
378 1 0.121066 0.715348 0.62093
379 1 0.643334 0.283739 0.749047
380 1 0.217274 0.710014 0.0972812
381 1 0.226859 0.423558 0.654678
382 1 0.328417 0.0759717 0.30565
383 1 0.58845 0.389917 0.376537
384 1 0.371801 0.21138 0.50005
385 1 0.221005 0.210131 0.602143
386 1 0.491784 0.0496171 0.124117
387 1 0.764702 0.264096 0.00638084
388 1 0.767962 0.62315 0.24604
389 1 0.41023 0.572739 0.800915
390 1 0.0528644 0.368806 0.677353
391 1 0.506365 0.811024 0.581577
392 1 0.269456 0.45341 0.425626
393 1 0.423895 0.259664 0.573267
394 1 0.678317 0.389839 0.312074
395 1 0.594607 0.342222 0.0165934